15
Lattice="13.532787599999999 0.0 0.0 0.0 15.0897435 0.0 0.0 0.0 15.0959007" Properties=species:S:1:pos:R:3 10002=T Energy=-152.1090020006 kJ/mol=T pbc="F F F"
O        5.68944790       6.19710240       9.25918280
H        5.98113690       5.83509030      10.09590070
H        5.64332130       7.14133970       9.40925030
O        6.53161620       5.86484640       6.69214470
H        6.20985680       5.00000000       6.43769710
H        6.23193840       5.97651790       7.59433910
O        7.61464160       9.87729350       8.04272940
H        7.63602250       9.31419290       7.26897710
H        8.53278760      10.08974350       8.21037460
O        5.69466980       8.88125920       9.68800440
H        6.39102810       9.24594920       9.14181910
H        5.00000000       9.53928990       9.66228790
O        7.70539750       8.19949650       5.90629490
H        7.41634740       8.30585270       5.00000000
H        7.34035160       7.35717320       6.17733920
